% Model:              板.mph
% Version:            COMSOL 6.0.0.318
% Date:               Aug 11 2022, 16:58
% Dimension:          3
% Nodes:              2858
% Expressions:        1
% Description:        体
% x                       y                        z                        电流密度模
0                         0                        -10                      0
0                         0                        -7.499999999999999       0
0                         0                        -4.999999999999999       0
0                         0                        -2.5                     0
0                         0                        0                        0
0                         2.9411764705882155       -10                      0.32938144178365625
0                         2.9411764705882297       -7.500000000000015       4.024664109770067
0                         2.9411764705882297       -5.000000000000031       7.859381024433841
0                         2.9411764705882297       -2.5000000000000373      11.986916645227874
0                         2.9411764705882373       0                        16.598396441878066
0                         5.882352941176462        -10                      0.6559768202816946
0                         5.882352941176468        -7.500000000000015       7.911514253684294
0                         5.882352941176468        -5.000000000000039       15.431611500537645
0                         5.882352941176468        -2.5000000000000457      23.504568927661946
0                         5.882352941176472        0                        32.4979762395649
0                         8.82352941176468         -10                      0.9797280920971386
0                         8.823529411764689        -5.000000000000023       22.460736552375256
0                         8.82352941176469         -7.499999999999998       11.536723423228624
0                         8.82352941176469         -2.500000000000029       34.1502264640785
0                         8.823529411764712        0                        47.0601280873819
0                         11.76470588235291        -7.500000000000007       14.800398498719984
0                         11.76470588235291        -5.000000000000031       28.74280021190396
0                         11.76470588235291        -2.5000000000000373      43.60632167442275
0                         11.76470588235292        -9.999999999999996       1.3022043544727566
0                         11.764705882352944       0                        59.96962789964399
0                         14.705882352941131       -5.000000000000031       34.13769632739174
0                         14.705882352941133       -7.500000000000007       17.63322255951284
0                         14.70588235294116        -2.5000000000000373      51.65365783599103
0                         14.705882352941162       -10.000000000000002      1.6171454651187
0                         14.70588235294118        0                        70.81631228163756
0                         17.647058823529417       -10.000000000000004      1.9283498996428232
0                         17.647058823529417       0                        79.46665201916683
0                         17.647058823529438       -7.500000000000007       19.99866842807581
0                         17.647058823529438       -5.000000000000031       38.57314170125444
0                         17.647058823529438       -2.5000000000000373      58.190494828951515
0                         20.58823529411764        -10                      2.2367937614810462
0                         20.588235294117656       0                        86.05612399022776
0                         20.58823529411766        -7.500000000000007       21.89173184585312
0                         20.588235294117677       -5.000000000000031       42.041809042392885
0                         20.588235294117677       -2.5000000000000373      63.21085705159224
0                         23.529411764705873       -10                      2.5429222760269576
0                         23.52941176470589        0                        90.50958293969029
0                         23.5294117647059         -2.5000000000000373      66.80331725851873
0                         23.529411764705927       -7.500000000000007       23.3332779361752
0                         23.529411764705927       -5.000000000000031       44.59033400736338
0                         26.4705882352941         -10                      2.84901811223649
0                         26.47058823529412        -7.500000000000007       24.363394618949883
0                         26.470588235294123       0                        93.30319805683949
0                         26.470588235294144       -5.000000000000031       46.304176511093786
0                         26.470588235294144       -2.5000000000000373      69.11530228666486
0                         29.411764705882334       -10                      3.1585635399860754
0                         29.41176470588236        0                        94.61721066785366
0                         29.411764705882383       -7.500000000000007       25.033460393273735
0                         29.411764705882383       -2.5000000000000373      70.3223171617122
0                         29.411764705882412       -5.000000000000031       47.28966514408117
0                         32.35294117647058        -10                      3.472446171367088
0                         32.3529411764706         0                        94.6005085296384
0                         32.352941176470615       -7.500000000000007       25.399477069504748
0                         32.352941176470615       -5.000000000000031       47.65998426589143
0                         32.352941176470615       -2.5000000000000373      70.59932100650401
0                         35.29411764705881        -10.000000000000002      3.794579713506252
0                         35.29411764705883        -7.500000000000007       25.517511821842323
0                         35.29411764705883        -5.000000000000031       47.52761313932645
0                         35.29411764705883        -2.5000000000000373      70.12034731599735
0                         35.29411764705884        0                        93.65218162906041
0                         38.23529411764704        -9.999999999999998       4.128028420779078
0                         38.23529411764705        -5.000000000000031       46.99773287550478
0                         38.23529411764705        -2.5000000000000373      69.05020053264744
0                         38.23529411764706        -7.500000000000007       25.440858857556343
0                         38.23529411764708        0                        91.91225736820657
0                         41.1764705882353         -10                      4.476446754804952
0                         41.17647058823531        0                        89.55889703037278
0                         41.17647058823533        -7.500000000000007       25.21752805681906
0                         41.17647058823533        -5.000000000000031       46.164311098704275
0                         41.17647058823533        -2.5000000000000373      67.52781001012542
0                         44.11764705882352        -10                      4.842181221542327
0                         44.117647058823536       -7.499999999999989       24.889530458163478
0                         44.117647058823536       -5.000000000000013       45.10842224805335
0                         44.117647058823536       -2.5000000000000195      65.67434196021051
0                         44.11764705882355        0                        86.82132584195237
0                         47.05882352941176        -10                      5.230044240670984
0                         47.05882352941176        -7.500000000000007       24.492581958881573
0                         47.05882352941176        -5.000000000000031       43.89808433093295
0                         47.05882352941176        -2.5000000000000373      63.59256069152363
0                         47.05882352941178        0                        83.7701361058477
0                         49.999999999999986       -7.500000000000007       24.056594915728496
0                         49.999999999999986       -5.000000000000031       42.58941620771063
0                         49.999999999999986       -2.5000000000000373      61.360200760125466
0                         49.99999999999999        -10                      5.642157215166672
0                         50.000000000000014       0                        80.54325300806998
0                         52.94117647058821        -9.999999999999998       6.082669830398541
0                         52.94117647058824        -7.500000000000007       23.60610798791267
0                         52.941176470588246       0                        77.20685248755781
0                         52.941176470588275       -5.000000000000031       41.22742072228275
0                         52.941176470588275       -2.5000000000000373      59.0446814129703
0                         55.882352941176464       -10.000000000000002      6.555447731387368
0                         55.882352941176464       -7.500000000000007       23.1610532905235
0                         55.88235294117648        0                        73.83633813814049
0                         55.882352941176485       -5.000000000000031       39.84785826742923
0                         55.882352941176485       -2.5000000000000373      56.69550981633394
0                         58.823529411764696       -10.000000000000002      7.06383995943826
0                         58.82352941176471        -5.000000000000031       38.47843175732352
0                         58.82352941176471        -2.5000000000000373      54.35062165434339
0                         58.82352941176471        0                        70.47633577479482
0                         58.82352941176472        -7.500000000000007       22.73741909941159
0                         61.76470588235293        -10                      7.61184497632112
0                         61.76470588235295        0                        67.14860247114237
0                         61.76470588235297        -5.000000000000031       37.140456707197664
0                         61.76470588235297        -2.5000000000000373      52.04012237841209
0                         61.76470588235298        -7.500000000000007       22.34803198165269
0                         64.70588235294117        -10                      8.203666788592724
0                         64.7058823529412         -7.499999999999989       22.003248128170103
0                         64.7058823529412         -5.000000000000013       35.85005446450849
0                         64.7058823529412         -2.5000000000000195      49.78419099341761
0                         64.70588235294122        0                        63.90580546596974
0                         67.6470588235294         -10                      8.844125041954507
0                         67.64705882352942        -7.499999999999989       21.711433581078694
0                         67.64705882352942        -5.000000000000031       34.61881215247533
0                         67.64705882352942        0                        60.73642602342547
0                         67.64705882352943        -2.5000000000000373      47.597764454937945
0                         70.58823529411765        -10.000000000000002      9.538114654172666
0                         70.58823529411767        -7.500000000000007       21.479430952107258
0                         70.58823529411767        -5.000000000000031       33.455173445522775
0                         70.58823529411767        -2.5000000000000373      45.488940729505
0                         70.58823529411768        0                        57.664310686736
0                         73.52941176470588        -10                      10.290696242106762
0                         73.52941176470591        -7.499999999999998       21.313168677625573
0                         73.52941176470591        -5.000000000000023       32.365112478606704
0                         73.52941176470591        -2.500000000000029       43.464296724442505
0                         73.52941176470591        0                        54.689061539009764
0                         76.47058823529414        -9.999999999999998       11.108805569506089
0                         76.47058823529414        -7.500000000000007       21.2180977366706
0                         76.47058823529414        -5.000000000000031       31.352894947778392
0                         76.47058823529414        -2.5000000000000373      41.52593368475427
0                         76.47058823529414        0                        51.8126330505721
0                         79.41176470588235        -7.500000000000015       21.199539526026264
0                         79.41176470588235        -5.000000000000039       30.42122839094491
0                         79.41176470588235        -2.5000000000000457      39.67402630975578
0                         79.41176470588236        0                        49.03160167931241
0                         79.41176470588238        -10.000000000000002      11.999654582826789
0                         82.3529411764706         -10                      12.972603593369948
0                         82.35294117647061        0                        46.33803466521376
0                         82.35294117647062        -5.000000000000013       29.57161314743809
0                         82.35294117647062        -2.5000000000000195      37.9057996832032
0                         82.35294117647064        -7.499999999999989       21.263004238568016
0                         85.29411764705881        -10                      14.039759445435825
0                         85.29411764705884        0                        43.722148779641394
0                         85.29411764705887        -7.500000000000007       21.414160702760814
0                         85.29411764705887        -5.000000000000031       28.80429129003504
0                         85.29411764705887        -2.5000000000000373      36.216029000012384
0                         88.23529411764704        0                        41.16828086307171
0                         88.23529411764707        -10                      15.211917339731572
0                         88.23529411764713        -7.500000000000007       21.659218307103963
0                         88.23529411764713        -5.000000000000031       28.117770310458646
0                         88.23529411764713        -2.5000000000000373      34.5967947184913
0                         91.17647058823529        -10                      16.51120560099245
0                         91.17647058823532        0                        38.660784876691096
0                         91.17647058823533        -7.500000000000015       22.003574195038052
0                         91.17647058823536        -5.000000000000031       27.506588125060915
0                         91.17647058823536        -2.5000000000000373      33.03540197825768
0                         94.11764705882352        -10                      17.953547678885183
0                         94.11764705882354        0                        36.17571059493178
0                         94.11764705882361        -5.000000000000013       26.956350203630226
0                         94.11764705882361        -2.5000000000000195      31.501506026670896
0                         94.11764705882364        -7.499999999999989       22.45472982459747
0                         97.05882352941178        -10.000000000000002      19.592012189202663
0                         97.05882352941178        0                        33.62358833684406
0                         97.05882352941182        -7.500000000000007       23.048514452143287
0                         97.05882352941182        -5.000000000000031       26.43154468975098
0                         97.05882352941182        -2.500000000000029       29.90915652528993
0                         99.99999999999999        -2.5                     28.072771403310274
0                         100                      -10                      21.669050429260082
0                         100                      -7.500000000000003       23.83110658674618
0                         100                      -5                       25.913362225943587
0                         100                      0                        30.687341046446154
2.941176470588234         79.41176470588235        0                        48.98015365337268
2.9411764705882346        14.70588235294116        -10                      1.6372306039909268
2.9411764705882346        20.588235294117645       -10                      2.2439363259412066
2.9411764705882346        23.529411764705866       -10                      2.545582753785866
2.9411764705882346        26.4705882352941         -10                      2.84761823103816
2.9411764705882346        29.41176470588232        -10                      3.1538927503622807
2.9411764705882346        70.5882352941177         0                        57.60075117591862
2.9411764705882346        73.5294117647059         0                        54.63095485328566
2.9411764705882346        76.47058823529414        0                        51.756999734209046
2.941176470588235         0                        -7.5                     4.024192092676207
2.941176470588235         2.941176470588214        -10                      0.4625700379315027
2.941176470588235         5.88235294117646         -10                      0.7284576246710187
2.941176470588235         17.647058823529438       -10                      1.9412062427027377
2.941176470588235         32.35294117647057        -10                      3.465157823758196
2.941176470588235         67.6470588235294         0                        60.668665248498364
2.941176470588235         79.41176470588238        -10                      11.97950563122407
2.941176470588235         85.29411764705885        0                        43.67728697456442
2.941176470588235         91.17647058823528        -10                      16.48657881582796
2.9411764705882355        2.9411764705882373       0                        23.289512636935005
2.9411764705882355        5.882352941176471        0                        36.080427056828654
2.9411764705882355        8.823529411764712        0                        49.294085171496114
2.9411764705882355        11.764705882352942       0                        61.44139521292145
2.9411764705882355        17.64705882352942        0                        80.0871251701577
2.9411764705882355        20.588235294117652       0                        86.4347163648754
2.9411764705882355        29.411764705882355       0                        94.63797049818666
2.9411764705882355        38.235294117647086       0                        91.82835822685462
2.9411764705882355        41.176470588235304       0                        89.47582513809087
2.9411764705882355        61.76470588235292        -10                      7.592967499863274
2.9411764705882355        64.70588235294117        -10                      8.184559700530352
2.9411764705882355        73.52941176470587        -10                      10.270909100629435
2.9411764705882355        82.3529411764706         -10                      12.952022913906351
2.9411764705882355        82.3529411764706         0                        46.28969903677844
2.9411764705882355        88.23529411764707        -10                      15.190592162194847
2.9411764705882355        100                      -2.5                     28.027180878359356
2.941176470588236         0                        -10                      0.32879794173732685
2.941176470588236         0                        0                        16.57400741242902
2.941176470588236         100.00000000000001       -10                      21.62350102307775
2.941176470588236         100.00000000000001       0                        30.63999095861013
2.9411764705882364        0                        -4.999999999999999       7.858829729961754
2.9411764705882364        0                        -2.5                     11.982047798694182
2.9411764705882364        8.823529411764685        -10                      1.0259538433918158
2.9411764705882364        11.76470588235292        -10                      1.332184273803179
2.9411764705882364        14.70588235294118        0                        71.77740097927406
2.9411764705882364        23.529411764705895       0                        90.74603072982224
2.9411764705882364        26.47058823529412        0                        93.42914376555836
2.9411764705882364        32.35294117647059        0                        94.59168787869515
2.9411764705882364        35.29411764705881        -10                      3.784983213379526
2.9411764705882364        38.23529411764704        -10                      4.116458699236098
2.9411764705882364        47.05882352941179        0                        83.67379468785913
2.9411764705882364        50                       -10                      5.625478898848563
2.9411764705882364        52.9411764705882         -10                      6.065350353679291
2.9411764705882364        58.823529411764696       -10                      7.0453503721582695
2.9411764705882364        61.764705882352956       0                        67.07180933632883
2.9411764705882364        64.70588235294123        0                        63.83167707452298
2.9411764705882364        70.58823529411765        -10                      9.518560213594146
2.9411764705882364        76.47058823529414        -10                      11.088815596790905
2.9411764705882364        85.29411764705881        -10                      14.018384151143128
2.9411764705882364        88.23529411764707        0                        41.12634868726651
2.9411764705882364        91.17647058823533        0                        38.62091001348016
2.9411764705882364        94.11764705882351        -10                      17.92502262314884
2.9411764705882364        94.11764705882352        0                        36.13507006538751
2.9411764705882364        97.05882352941177        0                        33.591546246885
2.9411764705882364        97.0588235294118         -10                      19.544294949177857
2.9411764705882364        100                      -7.5000000000000036      23.81567049604189
2.9411764705882364        100                      -5                       25.87592667351371
2.941176470588237         35.29411764705885        0                        93.59582381073601
2.941176470588237         41.17647058823529        -10                      4.463196604496892
2.941176470588237         44.117647058823515       -10                      4.827753063627302
2.941176470588237         44.11764705882354        0                        86.7229535566324
2.941176470588237         47.05882352941176        -10                      5.214271256633834
2.941176470588237         50                       0                        80.44395342560799
2.941176470588237         52.94117647058824        0                        77.11453469610969
2.941176470588237         55.882352941176464       -10                      6.537456202149913
2.941176470588237         55.88235294117649        0                        73.74793392767216
2.941176470588237         58.82352941176472        0                        70.38949091717907
2.941176470588237         67.64705882352942        -10                      8.824772159897783
5.882352941176467         17.64705882352939        -10                      1.9798929885073224
5.882352941176467         20.588235294117645       -10                      2.2655296887481544
5.882352941176467         20.588235294117652       0                        87.51446622774515
5.882352941176467         23.529411764705863       -10                      2.553223867016378
5.882352941176467         26.470588235294084       -10                      2.84398345544065
5.882352941176467         29.411764705882337       -10                      3.140287701334729
5.882352941176467         32.35294117647057        -10                      3.44351141816522
5.882352941176467         67.64705882352939        0                        60.46527091304097
5.882352941176467         70.58823529411765        0                        57.411095056538485
5.882352941176468         0                        -7.499999999999998       7.910224562479598
5.882352941176468         2.9411764705882137       -10                      0.7279258503620125
5.882352941176468         2.9411764705882364       0                        36.08404691386512
5.882352941176468         5.882352941176473        0                        44.73990071549545
5.882352941176468         8.823529411764685        -10                      1.1527410877139548
5.882352941176468         8.823529411764712        0                        55.13331495768196
5.882352941176468         14.70588235294116        -10                      1.696808374243108
5.882352941176468         14.70588235294118        0                        74.42298188732897
5.882352941176468         17.647058823529413       0                        81.84095465693576
5.882352941176468         23.52941176470588        0                        91.40361679132086
5.882352941176468         35.29411764705885        0                        93.424982784203
5.882352941176468         38.23529411764707        0                        91.58273928175507
5.882352941176468         44.117647058823536       0                        86.43342319727572
5.882352941176468         52.9411764705882         -10                      6.013338922614083
5.882352941176468         67.64705882352942        -10                      8.766688817987703
5.882352941176468         73.52941176470587        0                        54.45459565385978
5.882352941176468         76.47058823529413        -10                      11.029015579024929
5.882352941176468         76.47058823529414        0                        51.59184376886728
5.882352941176468         79.41176470588235        0                        48.82604062478333
5.882352941176468         79.41176470588236        -10                      11.919091026058181
5.882352941176468         82.3529411764706         -10                      12.890390973841667
5.882352941176468         82.35294117647061        0                        46.14578292162978
5.882352941176468         85.29411764705881        0                        43.54292284790656
5.882352941176468         88.23529411764704        0                        41.0005423164676
5.882352941176468         91.17647058823528        -10                      16.41432116869665
5.882352941176468         91.17647058823532        0                        38.50156273095888
5.882352941176468         94.1176470588235         -10                      17.840295042562335
5.882352941176468         99.99999999999997        -2.4999999999999996      27.89394447234509
5.882352941176469         0                        -9.999999999999998       0.6553653262158365
5.882352941176469         0                        -4.999999999999999       15.430961261702677
5.882352941176469         0                        -2.499999999999999       23.510409718542867
5.882352941176469         0                        0                        32.49580165448286
5.882352941176469         5.882352941176473        -10                      0.9119218313853292
5.882352941176469         11.764705882352946       -10                      1.4193833782129315
5.882352941176469         11.764705882352946       0                        65.395594765047
5.882352941176469         32.3529411764706         0                        94.53030577512922
5.882352941176469         35.294117647058805       -10                      3.756410720916623
5.882352941176469         38.23529411764704        -10                      4.082016792524748
5.882352941176469         41.17647058823529        -10                      4.423698313698704
5.882352941176469         41.176470588235304       0                        89.21378427515913
5.882352941176469         47.05882352941176        0                        83.37957342372212
5.882352941176469         50                       0                        80.1506515951764
5.882352941176469         52.94117647058823        0                        76.83466393629816
5.882352941176469         55.882352941176464       -10                      6.483538714398348
5.882352941176469         55.88235294117647        0                        73.48093066915452
5.882352941176469         58.82352941176472        0                        70.1361176065634
5.882352941176469         61.7647058823529         -10                      7.536435063046132
5.882352941176469         61.764705882352935       0                        66.8393691056221
5.882352941176469         64.70588235294115        -10                      8.127238091815205
5.882352941176469         64.70588235294117        0                        63.61153798605453
5.882352941176469         70.58823529411765        -10                      9.459857809851078
5.882352941176469         73.52941176470586        -10                      10.21171652239217